REMARK  9 active torsions:
REMARK  status: ('A' for Active; 'I' for Inactive)
REMARK    1  A    between atoms: O02_2  and  CAX_24 
REMARK    2  A    between atoms: CAC_3  and  CAM_13 
REMARK    3  A    between atoms: CAC_3  and  NBH_34 
REMARK    4  A    between atoms: CAM_13  and  CAN_14 
REMARK    5  A    between atoms: CAN_14  and  OAW_23 
REMARK    6  A    between atoms: NAU_21  and  CBB_28 
REMARK    7  A    between atoms: NAU_21  and  CBE_31 
REMARK    8  A    between atoms: OAV_22  and  CBC_29 
REMARK    9  A    between atoms: OAW_23  and  CBD_30 
ROOT
HETATM    1  NAD DB8 A 601       8.549 -32.810  -9.319  1.00 28.99    -0.192 NA
HETATM    2  CAG DB8 A 601       9.384 -33.481  -8.931  1.00 27.03     0.100 C 
HETATM    3  CAH DB8 A 601      11.869 -33.856  -8.343  1.00 28.35     0.163 A 
HETATM    4  CAK DB8 A 601      13.860 -36.747  -6.670  1.00 33.01     0.098 A 
HETATM    5  CAL DB8 A 601      11.121 -37.958  -6.802  1.00 31.90     0.081 A 
HETATM    6  NAT DB8 A 601      12.943 -34.658  -7.852  1.00 30.45    -0.269 NA
HETATM    7  CBA DB8 A 601      10.470 -34.375  -8.426  1.00 26.47     0.081 A 
HETATM    8  CBC DB8 A 601      12.239 -38.670  -6.104  1.00 33.79     0.095 A 
HETATM    9  CBD DB8 A 601      13.593 -38.083  -6.036  1.00 33.97     0.096 A 
HETATM   10  CBE DB8 A 601      10.196 -35.792  -7.968  1.00 30.40     0.042 A 
HETATM   11  CBF DB8 A 601      12.747 -36.010  -7.403  1.00 31.90     0.058 A 
HETATM   12  CBG DB8 A 601      11.370 -36.627  -7.455  1.00 31.93     0.009 A 
ENDROOT
BRANCH  10  13
HETATM   13  NAU DB8 A 601       8.847 -36.347  -7.895  1.00 32.72    -0.259 NA
HETATM   14  H26 DB8 A 601       8.936 -37.407  -8.006  1.00 37.43     0.133 HD
BRANCH  13  15
HETATM   15  CBB DB8 A 601       7.858 -35.899  -8.855  1.00 32.22     0.028 A 
HETATM   16  CAJ DB8 A 601       8.173 -35.919 -10.320  1.00 30.11     0.090 A 
HETATM   17  CAX DB8 A 601       7.139 -35.445 -11.283  1.00 35.35     0.084 A 
HETATM   18  CAY DB8 A 601       5.818 -34.957 -10.798  1.00 37.92     0.059 A 
HETATM   19 CL1  DB8 A 601       4.642 -34.418 -11.931  1.00 48.49    -0.085 Cl
HETATM   20  CAI DB8 A 601       5.509 -34.940  -9.344  1.00 37.15     0.078 A 
HETATM   21  CAZ DB8 A 601       6.536 -35.409  -8.378  1.00 32.75     0.048 A 
HETATM   22 CL2  DB8 A 601       6.200 -35.389  -6.685  1.00 34.14    -0.086 Cl
BRANCH  17  23
HETATM   23  O02 DB8 A 601       7.420 -35.465 -12.617  1.00 37.60    -0.332 OA
HETATM   24  C01 DB8 A 601       8.729 -35.767 -12.963  1.00 39.30     0.181 C 
ENDBRANCH  17  23
ENDBRANCH  13  15
ENDBRANCH  10  13
BRANCH   8  25
HETATM   25  OAV DB8 A 601      11.981 -39.887  -5.525  1.00 41.17    -0.330 OA
HETATM   26  CAA DB8 A 601      10.683 -40.367  -5.627  1.00 35.24     0.181 C 
ENDBRANCH   8  25
BRANCH   9  27
HETATM   27  OAW DB8 A 601      14.615 -38.774  -5.378  1.00 30.65    -0.333 OA
BRANCH  27  28
HETATM   28  CAN DB8 A 601      15.914 -38.250  -5.388  1.00 31.03     0.150 C 
BRANCH  28  29
HETATM   29  CAM DB8 A 601      16.924 -39.337  -5.001  1.00 38.93     0.056 C 
BRANCH  29  30
HETATM   30  CAC DB8 A 601      16.431 -40.060  -3.760  1.00 41.72     0.100 C 
BRANCH  30  31
HETATM   31  NBH DB8 A 601      17.601 -40.322  -2.860  1.00 46.45    -0.365 N 
HETATM   32  CAP DB8 A 601      17.456 -40.507  -1.415  1.00 43.76     0.121 C 
HETATM   33  CAR DB8 A 601      18.727 -41.175  -0.860  1.00 49.42     0.121 C 
HETATM   34  NBI DB8 A 601      19.871 -40.365  -1.181  1.00 58.88    -0.364 N 
HETATM   35  CAO DB8 A 601      21.049 -40.557  -0.343  1.00 56.16     0.121 C 
HETATM   36  CAS DB8 A 601      19.990 -40.191  -2.600  1.00 59.74     0.121 C 
HETATM   37  CAQ DB8 A 601      18.767 -39.521  -3.147  1.00 48.54     0.121 C 
ENDBRANCH  30  31
ENDBRANCH  29  30
ENDBRANCH  28  29
ENDBRANCH  27  28
ENDBRANCH   9  27
TORSDOF 9
