REMARK  10 active torsions:
REMARK  status: ('A' for Active; 'I' for Inactive)
REMARK    1  A    between atoms: C5_5  and  N1_6 
REMARK    2  A    between atoms: N1_6  and  C6_7 
REMARK    3  A    between atoms: C9_10  and  O1_11 
REMARK    4  A    between atoms: O1_11  and  C10_12 
REMARK    5  A    between atoms: C10_12  and  C11_13 
REMARK    6  A    between atoms: C11_13  and  O2_14 
REMARK    7  A    between atoms: C13_16  and  O3_17 
REMARK    8  A    between atoms: O3_17  and  C14_18 
REMARK    9  A    between atoms: C14_18  and  C15_19 
REMARK   10  A    between atoms: C15_19  and  O4_20 
ROOT
HETATM    1  C1  AQ4 A 325      29.141  -3.096  53.137  1.00  0.00     0.081 C 
HETATM    2  C2  AQ4 A 325      28.757  -1.865  53.307  1.00  0.00    -0.131 C 
HETATM    3  C3  AQ4 A 325      28.297  -0.650  53.477  1.00  0.00     0.013 C 
HETATM    4  C4  AQ4 A 325      26.875  -0.428  53.424  1.00  0.00     0.020 C 
HETATM    5  C5  AQ4 A 325      26.349   0.816  53.528  1.00  0.00     0.058 C 
HETATM    6  C20 AQ4 A 325      27.201   1.984  53.564  1.00  0.00     0.013 C 
HETATM    7  C21 AQ4 A 325      28.540   1.849  53.656  1.00  0.00    -0.019 C 
HETATM    8  C22 AQ4 A 325      29.256   0.504  53.786  1.00  0.00     0.060 C 
ENDROOT
BRANCH   5   9
HETATM    9  N1  AQ4 A 325      24.958   1.013  53.587  1.00  0.00    -0.339 N 
HETATM   10  H1  AQ4 A 325      24.601   1.924  53.263  1.00  0.00     0.167 HD
BRANCH   9  11
HETATM   11  C6  AQ4 A 325      24.034   0.121  54.136  1.00  0.00     0.144 A 
HETATM   12  C7  AQ4 A 325      22.678   0.139  53.695  1.00  0.00     0.054 A 
HETATM   13  C8  AQ4 A 325      22.176   0.985  52.674  1.00  0.00     0.031 A 
HETATM   14  C18 AQ4 A 325      21.810  -0.770  54.328  1.00  0.00     0.088 A 
HETATM   15  C9  AQ4 A 325      20.848   0.902  52.291  1.00  0.00     0.117 A 
HETATM   16  C13 AQ4 A 325      19.993  -0.053  52.906  1.00  0.00     0.118 A 
HETATM   17  C17 AQ4 A 325      20.464  -0.851  53.928  1.00  0.00     0.045 A 
HETATM   18  N2  AQ4 A 325      22.284  -1.601  55.314  1.00  0.00    -0.224 NA
HETATM   19  C19 AQ4 A 325      23.542  -1.539  55.647  1.00  0.00     0.200 A 
HETATM   20  N3  AQ4 A 325      24.438  -0.689  55.087  1.00  0.00    -0.207 NA
BRANCH  15  21
HETATM   21  O1  AQ4 A 325      20.351   1.763  51.319  1.00  0.00    -0.326 OA
BRANCH  21  22
HETATM   22  C10 AQ4 A 325      21.082   2.923  50.813  1.00  0.00     0.181 C 
BRANCH  22  23
HETATM   23  C11 AQ4 A 325      20.110   3.732  49.934  1.00  0.00     0.175 C 
BRANCH  23  24
HETATM   24  O2  AQ4 A 325      20.219   3.250  48.596  1.00  0.00    -0.349 OA
HETATM   25  C12 AQ4 A 325      19.516   2.041  48.356  1.00  0.00     0.174 C 
ENDBRANCH  23  24
ENDBRANCH  22  23
ENDBRANCH  21  22
ENDBRANCH  15  21
BRANCH  16  26
HETATM   26  O3  AQ4 A 325      18.680  -0.277  52.542  1.00  0.00    -0.326 OA
BRANCH  26  27
HETATM   27  C14 AQ4 A 325      17.896   0.348  51.492  1.00  0.00     0.181 C 
BRANCH  27  28
HETATM   28  C15 AQ4 A 325      16.489  -0.249  51.639  1.00  0.00     0.175 C 
BRANCH  28  29
HETATM   29  O4  AQ4 A 325      15.920   0.404  52.760  1.00  0.00    -0.349 OA
HETATM   30  C16 AQ4 A 325      14.644  -0.102  53.114  1.00  0.00     0.174 C 
ENDBRANCH  28  29
ENDBRANCH  27  28
ENDBRANCH  26  27
ENDBRANCH  16  26
ENDBRANCH   9  11
ENDBRANCH   5   9
TORSDOF 10
